<?xml version="1.0" encoding="UTF-8"?>

<!-- generated on 2024-12-12 16:47:39 by Eclipse SUMO GUI Version 1.20.0
<configuration xmlns:xsi="http://www.w3.org/2001/XMLSchema-instance" xsi:noNamespaceSchemaLocation="http://sumo.dlr.de/xsd/sumoConfiguration.xsd">

    <input>
        <net-file value="/Users/yashraj/Library/CloudStorage/OneDrive-TechnischeHochschuleIngolstadt/THI/Academics/Sem 3/General Elective/Smart Mobility/My Paper/New/RL&#45;&#45;based-Traffic-Intersection-Management/Network.net.xml"/>
        <route-files value="/Users/yashraj/Library/CloudStorage/OneDrive-TechnischeHochschuleIngolstadt/THI/Academics/Sem 3/General Elective/Smart Mobility/My Paper/New/RL&#45;&#45;based-Traffic-Intersection-Management/Route.rou.xml"/>
        <additional-files value="/Users/yashraj/Library/CloudStorage/OneDrive-TechnischeHochschuleIngolstadt/THI/Academics/Sem 3/General Elective/Smart Mobility/My Paper/New/RL&#45;&#45;based-Traffic-Intersection-Management/Induction_loop.xml"/>
    </input>

    <time>
        <begin value="0"/>
        <end value="100000"/>
    </time>

    <report>
        <log value="false"/>
        <no-step-log value="true"/>
    </report>

    <traci_server>
        <remote-port value="58968"/>
    </traci_server>

</configuration>
-->

<detector xmlns:xsi="http://www.w3.org/2001/XMLSchema-instance" xsi:noNamespaceSchemaLocation="http://sumo.dlr.de/xsd/det_e1_file.xsd">
    <interval begin="0.00" end="857.00" id="myLoop1" nVehContrib="139" flow="583.90" occupancy="9.99" speed="9.89" harmonicMeanSpeed="8.12" length="5.00" nVehEntered="139"/>
    <interval begin="0.00" end="857.00" id="myLoop2" nVehContrib="74" flow="310.85" occupancy="12.45" speed="7.74" harmonicMeanSpeed="3.47" length="5.00" nVehEntered="74"/>
    <interval begin="0.00" end="857.00" id="myLoop3" nVehContrib="102" flow="428.47" occupancy="25.69" speed="4.02" harmonicMeanSpeed="2.32" length="5.00" nVehEntered="103"/>
    <interval begin="0.00" end="857.00" id="myLoop4" nVehContrib="74" flow="310.85" occupancy="31.79" speed="2.65" harmonicMeanSpeed="1.36" length="5.00" nVehEntered="74"/>
    <interval begin="0.00" end="857.00" id="myLoop5" nVehContrib="135" flow="567.09" occupancy="17.65" speed="7.27" harmonicMeanSpeed="4.48" length="5.00" nVehEntered="136"/>
    <interval begin="0.00" end="857.00" id="myLoop6" nVehContrib="73" flow="306.65" occupancy="33.28" speed="4.48" harmonicMeanSpeed="1.33" length="5.00" nVehEntered="74"/>
    <interval begin="0.00" end="857.00" id="myLoop7" nVehContrib="94" flow="394.87" occupancy="24.07" speed="3.61" harmonicMeanSpeed="2.28" length="5.00" nVehEntered="94"/>
    <interval begin="0.00" end="857.00" id="myLoop8" nVehContrib="72" flow="302.45" occupancy="32.90" speed="2.83" harmonicMeanSpeed="1.28" length="5.00" nVehEntered="72"/>
</detector>
